title: Mac OS X Jaguar
id: 410016
Mac OS X Jaguar version is the third major release of macOS Apple s desktop and server operating system It superseded Mac OS X and preceded Mac OS X Panther The operating system was released on August either for single computer installations and in a family pack which allowed five installations on separate computers in one household Jaguar was the first Mac OS X release to publicly use its code name in marketing and advertisements br br br System requirements br Mac OS X Jaguar requires a PowerPC G or G CPU and MB of RAM Special builds were released for the first PowerPC G systems released by Apple br br br New and changed features br Jaguar introduced many new features to Mac OS X which are still supported to this day including MPEG support in QuickTime Address Book and Inkwell for handwriting recognition It also included the first release of Apple s Zeroconf implementation Rendezvous later renamed to Bonjour which allows devices on the same network to automatically discover each other and offer available services such as file sharing shared scanners and printers to the user br Mac OS X Jaguar Server added journaling to HFS Plus the native Macintosh file system to add increased reliability and data recovery features This was later added to the standard Mac OS X in version Panther br Jaguar saw the debut of Quartz Extreme a technology used to composite graphics directly on the video card without the use of software to composite windows The technology allotted the task of drawing the D surface of windows to the video card rather than to the CPU to increase interface responsiveness and performance br Universal Access was added to allow the Macintosh to be usable by disabled computer users br The user interface of Jaguar was also updated to add search features to the Finder powered by Sherlock br Internally Jaguar also added the Common Unix Printing System also known as CUPS a modular printing system for Unix like operating systems and improved support for Microsoft Windows networks using the open source Samba as a server for the SMB remote file access protocol and a FreeBSD derived virtual file system module as a client for SMB br The Happy Mac startup icon that was introduced with the original Macintosh was replaced with a grey Apple logo The gray startup screen was used up until OS X Yosemite br br br Marketing br Jaguar was a upgrade for both Mac OS and existing Mac OS X users In October Apple offered free copies of Jaguar to all U S K teachers as part of the X For Teachers program Teachers who wanted to get a copy had to fill out a form and a packet containing Mac OS X installation discs and manuals was shipped to the school where they worked br Jaguar was the first version of Mac OS X to use its internal codename as the official name of the operating system To that effect the retail packaging featured computer generated jaguar fur designed by animation studio Pixar br Starting with Jaguar Mac OS X releases were given a feline related marketing name upon announcement until the introduction of OS X Mavericks in June at which point releases began to be named after locations in California where Apple is headquartered Mac OS X rebranded as OS X in and later macOS in releases are now also referred to by their marketing name in addition to version numbers br br br Release history br br Mac OS X codenames Blackrider Smeagol was only available to the new Power Mac G s and aluminum PowerBook G s released before Mac OS X Panther Officially it was never released to the general public br Mac OS X is the last version of Mac OS X officially supported on the Beige G desktop minitower and all in one systems as well as the PowerBook G Series also known as Wallstreet PDQ though later releases can be run on such Macs with the help of unofficial unlicensed and unsupported third party tools such as XPostFacto br br br Timeline br br br br br br External links br Mac OS X review at Ars Technica br Mac OS X Technical Note TN at the Wayback Machine archived February at Apple